<?xml version="1.0" encoding="UTF-8"?>

<!-- generated on Wed 01 Jan 2020 04:44:12 PM +06 by SUMO gui Version 0.32.0
<?xml version="1.0" encoding="UTF-8"?>

<configuration xmlns:xsi="http://www.w3.org/2001/XMLSchema-instance" xsi:noNamespaceSchemaLocation="http://sumo.dlr.de/xsd/sumoConfiguration.xsd">

    <input>
        <net-file value="data/cross.net.xml"/>
        <route-files value="data/cross.rou.xml"/>
        <additional-files value="data/add/cross.det.xml,data/add/cross1.det.xml,data/add/cross2.det.xml,data/add/cross3.det.xml,data/add/cross4.det.xml,data/add/cross5.det.xml,data/add/cross6.det.xml,data/add/cross7.det.xml,data/add/d1.add.xml,data/add/d2.add.xml,data/add/d3.add.xml,data/add/d4.add.xml,data/add/d5.add.xml,data/add/d6.add.xml,data/add/d7.add.xml,data/add/d8.add.xml"/>
    </input>

    <output>
        <full-output value="data/statistics.txt"/>
        <tripinfo-output value="tripinfo.xml"/>
    </output>

    <time>
        <begin value="0"/>
    </time>

    <report>
        <verbose value="true"/>
        <no-step-log value="true"/>
    </report>

    <traci_server>
        <remote-port value="8874"/>
    </traci_server>

</configuration>
-->

<tripinfos xmlns:xsi="http://www.w3.org/2001/XMLSchema-instance" xsi:noNamespaceSchemaLocation="http://sumo.dlr.de/xsd/tripinfo_file.xsd">
    <tripinfo id="0" depart="0.00" departLane="2to0_0" departPos="5.10" departSpeed="0.00" departDelay="0.00" arrival="79.00" arrivalLane="0to1_0" arrivalPos="1291.95" arrivalSpeed="59.19" duration="79.00" routeLength="2594.90" waitSteps="0" timeLoss="35.09" rerouteNo="0" devices="tripinfo_0" vType="923" speedFactor="1.00" vaporized=""/>
    <tripinfo id="1" depart="1.00" departLane="3to0_0" departPos="10.10" departSpeed="0.00" departDelay="0.00" arrival="84.00" arrivalLane="0to4_0" arrivalPos="1291.95" arrivalSpeed="59.17" duration="83.00" routeLength="2589.90" waitSteps="3" timeLoss="39.28" rerouteNo="0" devices="tripinfo_1" vType="924" speedFactor="1.00" vaporized=""/>
    <tripinfo id="3" depart="3.00" departLane="4to0_0" departPos="5.10" departSpeed="0.00" departDelay="0.00" arrival="87.00" arrivalLane="0to2_1" arrivalPos="1291.95" arrivalSpeed="59.69" duration="84.00" routeLength="2594.44" waitSteps="8" timeLoss="40.06" rerouteNo="0" devices="tripinfo_3" vType="923" speedFactor="1.00" vaporized=""/>
    <tripinfo id="4" depart="5.00" departLane="2to0_0" departPos="5.10" departSpeed="0.00" departDelay="0.00" arrival="92.00" arrivalLane="0to1_0" arrivalPos="1291.95" arrivalSpeed="59.52" duration="87.00" routeLength="2594.90" waitSteps="4" timeLoss="42.80" rerouteNo="0" devices="tripinfo_4" vType="923" speedFactor="1.00" vaporized=""/>
    <tripinfo id="2" depart="5.00" departLane="3to0_0" departPos="10.10" departSpeed="0.00" departDelay="3.00" arrival="93.00" arrivalLane="0to4_0" arrivalPos="1291.95" arrivalSpeed="58.87" duration="88.00" routeLength="2589.90" waitSteps="3" timeLoss="44.34" rerouteNo="0" devices="tripinfo_2" vType="924" speedFactor="1.00" vaporized=""/>
    <tripinfo id="5" depart="8.00" departLane="2to0_0" departPos="5.10" departSpeed="0.00" departDelay="0.00" arrival="97.00" arrivalLane="0to1_0" arrivalPos="1291.95" arrivalSpeed="59.25" duration="89.00" routeLength="2594.90" waitSteps="4" timeLoss="45.10" rerouteNo="0" devices="tripinfo_5" vType="923" speedFactor="1.00" vaporized=""/>
    <tripinfo id="8" depart="18.00" departLane="1to0_0" departPos="5.10" departSpeed="0.00" departDelay="0.00" arrival="98.00" arrivalLane="0to2_0" arrivalPos="1291.95" arrivalSpeed="59.34" duration="80.00" routeLength="2594.90" waitSteps="0" timeLoss="35.83" rerouteNo="0" devices="tripinfo_8" vType="923" speedFactor="1.00" vaporized=""/>
    <tripinfo id="6" depart="10.00" departLane="2to0_0" departPos="5.10" departSpeed="0.00" departDelay="1.00" arrival="98.00" arrivalLane="0to1_0" arrivalPos="1291.95" arrivalSpeed="58.86" duration="88.00" routeLength="2594.90" waitSteps="1" timeLoss="44.64" rerouteNo="0" devices="tripinfo_6" vType="923" speedFactor="1.00" vaporized=""/>
    <tripinfo id="7" depart="13.00" departLane="3to0_0" departPos="10.10" departSpeed="0.00" departDelay="0.00" arrival="102.00" arrivalLane="0to4_0" arrivalPos="1291.95" arrivalSpeed="59.92" duration="89.00" routeLength="2589.90" waitSteps="5" timeLoss="45.75" rerouteNo="0" devices="tripinfo_7" vType="924" speedFactor="1.00" vaporized=""/>
    <tripinfo id="9" depart="21.00" departLane="1to0_0" departPos="5.10" departSpeed="0.00" departDelay="1.00" arrival="106.00" arrivalLane="0to2_0" arrivalPos="1291.95" arrivalSpeed="59.55" duration="85.00" routeLength="2594.90" waitSteps="3" timeLoss="41.27" rerouteNo="0" devices="tripinfo_9" vType="923" speedFactor="1.00" vaporized=""/>
    <tripinfo id="10" depart="21.00" departLane="2to0_0" departPos="5.10" departSpeed="0.00" departDelay="0.00" arrival="106.00" arrivalLane="0to1_0" arrivalPos="1291.95" arrivalSpeed="59.39" duration="85.00" routeLength="2594.90" waitSteps="2" timeLoss="40.95" rerouteNo="0" devices="tripinfo_10" vType="923" speedFactor="1.00" vaporized=""/>
    <tripinfo id="12" depart="25.00" departLane="2to0_0" departPos="5.10" departSpeed="0.00" departDelay="0.00" arrival="107.00" arrivalLane="0to1_0" arrivalPos="1291.95" arrivalSpeed="58.51" duration="82.00" routeLength="2594.90" waitSteps="1" timeLoss="38.30" rerouteNo="0" devices="tripinfo_12" vType="923" speedFactor="1.00" vaporized=""/>
    <tripinfo id="11" depart="24.00" departLane="4to0_0" departPos="5.10" departSpeed="0.00" departDelay="0.00" arrival="112.00" arrivalLane="0to2_1" arrivalPos="1291.95" arrivalSpeed="59.75" duration="88.00" routeLength="2594.44" waitSteps="6" timeLoss="44.22" rerouteNo="0" devices="tripinfo_11" vType="923" speedFactor="1.00" vaporized=""/>
    <tripinfo id="13" depart="27.00" departLane="2to0_0" departPos="5.10" departSpeed="0.00" departDelay="1.00" arrival="115.00" arrivalLane="0to1_0" arrivalPos="1291.95" arrivalSpeed="58.66" duration="88.00" routeLength="2594.90" waitSteps="3" timeLoss="44.59" rerouteNo="0" devices="tripinfo_13" vType="923" speedFactor="1.00" vaporized=""/>
    <tripinfo id="15" depart="32.00" departLane="1to0_0" departPos="5.10" departSpeed="0.00" departDelay="0.00" arrival="116.00" arrivalLane="0to2_0" arrivalPos="1291.95" arrivalSpeed="59.29" duration="84.00" routeLength="2594.90" waitSteps="2" timeLoss="40.28" rerouteNo="0" devices="tripinfo_15" vType="923" speedFactor="1.00" vaporized=""/>
    <tripinfo id="16" depart="35.00" departLane="1to0_0" departPos="5.10" departSpeed="0.00" departDelay="2.00" arrival="118.00" arrivalLane="0to2_0" arrivalPos="1291.95" arrivalSpeed="59.04" duration="83.00" routeLength="2594.90" waitSteps="0" timeLoss="38.83" rerouteNo="0" devices="tripinfo_16" vType="923" speedFactor="1.00" vaporized=""/>
    <tripinfo id="14" depart="30.00" departLane="2to0_0" departPos="5.10" departSpeed="0.00" departDelay="3.00" arrival="118.00" arrivalLane="0to1_0" arrivalPos="1291.95" arrivalSpeed="58.89" duration="88.00" routeLength="2594.90" waitSteps="1" timeLoss="44.73" rerouteNo="0" devices="tripinfo_14" vType="923" speedFactor="1.00" vaporized=""/>
    <tripinfo id="18" depart="39.00" departLane="3to0_0" departPos="10.10" departSpeed="0.00" departDelay="0.00" arrival="122.00" arrivalLane="0to4_0" arrivalPos="1291.95" arrivalSpeed="59.12" duration="83.00" routeLength="2589.90" waitSteps="2" timeLoss="39.16" rerouteNo="0" devices="tripinfo_18" vType="924" speedFactor="1.00" vaporized=""/>
    <tripinfo id="20" depart="46.00" departLane="1to0_0" departPos="5.10" departSpeed="0.00" departDelay="0.00" arrival="124.00" arrivalLane="0to2_0" arrivalPos="1291.95" arrivalSpeed="59.80" duration="78.00" routeLength="2594.90" waitSteps="0" timeLoss="34.45" rerouteNo="0" devices="tripinfo_20" vType="923" speedFactor="1.00" vaporized=""/>
    <tripinfo id="17" depart="35.00" departLane="2to0_0" departPos="5.10" departSpeed="0.00" departDelay="0.00" arrival="126.00" arrivalLane="0to1_0" arrivalPos="1291.95" arrivalSpeed="59.93" duration="91.00" routeLength="2594.90" waitSteps="1" timeLoss="47.32" rerouteNo="0" devices="tripinfo_17" vType="923" speedFactor="1.00" vaporized=""/>
    <tripinfo id="19" depart="43.00" departLane="3to0_0" departPos="10.10" departSpeed="0.00" departDelay="2.00" arrival="127.00" arrivalLane="0to4_0" arrivalPos="1291.95" arrivalSpeed="58.86" duration="84.00" routeLength="2589.90" waitSteps="0" timeLoss="40.46" rerouteNo="0" devices="tripinfo_19" vType="924" speedFactor="1.00" vaporized=""/>
    <tripinfo id="22" depart="50.00" departLane="3to0_0" departPos="10.10" departSpeed="0.00" departDelay="0.00" arrival="129.00" arrivalLane="0to4_0" arrivalPos="1291.95" arrivalSpeed="58.86" duration="79.00" routeLength="2589.90" waitSteps="0" timeLoss="35.12" rerouteNo="0" devices="tripinfo_22" vType="924" speedFactor="1.00" vaporized=""/>
    <tripinfo id="21" depart="49.00" departLane="1to0_0" departPos="5.10" departSpeed="0.00" departDelay="2.00" arrival="135.00" arrivalLane="0to2_0" arrivalPos="1291.95" arrivalSpeed="59.75" duration="86.00" routeLength="2594.90" waitSteps="3" timeLoss="42.72" rerouteNo="0" devices="tripinfo_21" vType="923" speedFactor="1.00" vaporized=""/>
    <tripinfo id="23" depart="51.00" departLane="2to0_0" departPos="5.10" departSpeed="0.00" departDelay="0.00" arrival="136.00" arrivalLane="0to1_0" arrivalPos="1291.95" arrivalSpeed="58.61" duration="85.00" routeLength="2594.90" waitSteps="2" timeLoss="40.94" rerouteNo="0" devices="tripinfo_23" vType="923" speedFactor="1.00" vaporized=""/>
    <tripinfo id="29" depart="59.00" departLane="4to0_0" departPos="10.10" departSpeed="0.00" departDelay="0.00" arrival="138.00" arrivalLane="0to3_0" arrivalPos="1291.95" arrivalSpeed="59.09" duration="79.00" routeLength="2589.90" waitSteps="0" timeLoss="35.05" rerouteNo="0" devices="tripinfo_29" vType="924" speedFactor="1.00" vaporized=""/>
    <tripinfo id="24" depart="53.00" departLane="4to0_0" departPos="5.10" departSpeed="0.00" departDelay="0.00" arrival="140.00" arrivalLane="0to2_1" arrivalPos="1291.95" arrivalSpeed="58.98" duration="87.00" routeLength="2594.44" waitSteps="4" timeLoss="43.26" rerouteNo="0" devices="tripinfo_24" vType="923" speedFactor="1.00" vaporized=""/>
    <tripinfo id="25" depart="55.00" departLane="1to0_0" departPos="5.10" departSpeed="0.00" departDelay="0.00" arrival="143.00" arrivalLane="0to2_0" arrivalPos="1291.95" arrivalSpeed="59.11" duration="88.00" routeLength="2594.90" waitSteps="0" timeLoss="44.06" rerouteNo="0" devices="tripinfo_25" vType="923" speedFactor="1.00" vaporized=""/>
    <tripinfo id="28" depart="59.00" departLane="3to0_0" departPos="10.10" departSpeed="0.00" departDelay="0.00" arrival="145.00" arrivalLane="0to4_0" arrivalPos="1291.95" arrivalSpeed="58.74" duration="86.00" routeLength="2589.90" waitSteps="3" timeLoss="42.67" rerouteNo="0" devices="tripinfo_28" vType="924" speedFactor="1.00" vaporized=""/>
    <tripinfo id="26" depart="55.00" departLane="2to0_0" departPos="5.10" departSpeed="0.00" departDelay="0.00" arrival="150.00" arrivalLane="0to1_0" arrivalPos="1291.95" arrivalSpeed="59.33" duration="95.00" routeLength="2594.90" waitSteps="7" timeLoss="50.98" rerouteNo="0" devices="tripinfo_26" vType="923" speedFactor="1.00" vaporized=""/>
    <tripinfo id="27" depart="58.00" departLane="1to0_0" departPos="5.10" departSpeed="0.00" departDelay="0.00" arrival="151.00" arrivalLane="0to2_0" arrivalPos="1291.95" arrivalSpeed="59.38" duration="93.00" routeLength="2594.90" waitSteps="2" timeLoss="49.00" rerouteNo="0" devices="tripinfo_27" vType="923" speedFactor="1.00" vaporized=""/>
    <tripinfo id="31" depart="73.00" departLane="4to0_0" departPos="10.10" departSpeed="0.00" departDelay="0.00" arrival="155.00" arrivalLane="0to3_0" arrivalPos="1291.95" arrivalSpeed="58.72" duration="82.00" routeLength="2589.90" waitSteps="2" timeLoss="38.15" rerouteNo="0" devices="tripinfo_31" vType="924" speedFactor="1.00" vaporized=""/>
    <tripinfo id="30" depart="68.00" departLane="3to0_0" departPos="10.10" departSpeed="0.00" departDelay="0.00" arrival="155.00" arrivalLane="0to4_0" arrivalPos="1291.95" arrivalSpeed="59.68" duration="87.00" routeLength="2589.90" waitSteps="3" timeLoss="42.95" rerouteNo="0" devices="tripinfo_30" vType="924" speedFactor="1.00" vaporized=""/>
    <tripinfo id="34" depart="81.00" departLane="2to0_0" departPos="5.10" departSpeed="0.00" departDelay="0.00" arrival="157.00" arrivalLane="0to1_0" arrivalPos="1291.95" arrivalSpeed="58.94" duration="76.00" routeLength="2594.90" waitSteps="0" timeLoss="32.70" rerouteNo="0" devices="tripinfo_34" vType="923" speedFactor="1.00" vaporized=""/>
    <tripinfo id="32" depart="75.00" departLane="1to0_0" departPos="5.10" departSpeed="0.00" departDelay="0.00" arrival="159.00" arrivalLane="0to2_0" arrivalPos="1291.95" arrivalSpeed="59.96" duration="84.00" routeLength="2594.90" waitSteps="2" timeLoss="40.24" rerouteNo="0" devices="tripinfo_32" vType="923" speedFactor="1.00" vaporized=""/>
    <tripinfo id="35" depart="83.00" departLane="1to0_0" departPos="5.10" departSpeed="0.00" departDelay="0.00" arrival="162.00" arrivalLane="0to2_0" arrivalPos="1291.95" arrivalSpeed="59.47" duration="79.00" routeLength="2594.90" waitSteps="0" timeLoss="34.82" rerouteNo="0" devices="tripinfo_35" vType="923" speedFactor="1.00" vaporized=""/>
    <tripinfo id="36" depart="85.00" departLane="3to0_0" departPos="10.10" departSpeed="0.00" departDelay="0.00" arrival="168.00" arrivalLane="0to4_0" arrivalPos="1291.95" arrivalSpeed="58.67" duration="83.00" routeLength="2589.90" waitSteps="0" timeLoss="39.49" rerouteNo="0" devices="tripinfo_36" vType="924" speedFactor="1.00" vaporized=""/>
    <tripinfo id="37" depart="86.00" departLane="1to0_0" departPos="5.10" departSpeed="0.00" departDelay="0.00" arrival="170.00" arrivalLane="0to2_0" arrivalPos="1291.95" arrivalSpeed="58.76" duration="84.00" routeLength="2594.90" waitSteps="2" timeLoss="40.55" rerouteNo="0" devices="tripinfo_37" vType="923" speedFactor="1.00" vaporized=""/>
    <tripinfo id="33" depart="78.00" departLane="4to0_0" departPos="5.10" departSpeed="0.00" departDelay="0.00" arrival="171.00" arrivalLane="0to2_1" arrivalPos="1291.95" arrivalSpeed="59.75" duration="93.00" routeLength="2594.44" waitSteps="8" timeLoss="49.17" rerouteNo="0" devices="tripinfo_33" vType="923" speedFactor="1.00" vaporized=""/>
    <tripinfo id="41" depart="98.00" departLane="4to0_0" departPos="10.10" departSpeed="0.00" departDelay="0.00" arrival="174.00" arrivalLane="0to3_0" arrivalPos="1291.95" arrivalSpeed="59.32" duration="76.00" routeLength="2589.90" waitSteps="0" timeLoss="32.65" rerouteNo="0" devices="tripinfo_41" vType="924" speedFactor="1.00" vaporized=""/>
    <tripinfo id="40" depart="96.00" departLane="2to0_0" departPos="5.10" departSpeed="0.00" departDelay="0.00" arrival="177.00" arrivalLane="0to1_0" arrivalPos="1291.95" arrivalSpeed="59.94" duration="81.00" routeLength="2594.90" waitSteps="2" timeLoss="37.66" rerouteNo="0" devices="tripinfo_40" vType="923" speedFactor="1.00" vaporized=""/>
    <tripinfo id="38" depart="89.00" departLane="1to0_0" departPos="5.10" departSpeed="0.00" departDelay="2.00" arrival="180.00" arrivalLane="0to2_0" arrivalPos="1291.95" arrivalSpeed="58.96" duration="91.00" routeLength="2594.90" waitSteps="4" timeLoss="47.21" rerouteNo="0" devices="tripinfo_38" vType="923" speedFactor="1.00" vaporized=""/>
    <tripinfo id="42" depart="100.00" departLane="2to0_0" departPos="5.10" departSpeed="0.00" departDelay="0.00" arrival="180.00" arrivalLane="0to1_0" arrivalPos="1291.95" arrivalSpeed="58.57" duration="80.00" routeLength="2594.90" waitSteps="1" timeLoss="36.66" rerouteNo="0" devices="tripinfo_42" vType="923" speedFactor="1.00" vaporized=""/>
    <tripinfo id="39" depart="92.00" departLane="1to0_0" departPos="5.10" departSpeed="0.00" departDelay="0.00" arrival="182.00" arrivalLane="0to2_0" arrivalPos="1291.95" arrivalSpeed="59.55" duration="90.00" routeLength="2594.90" waitSteps="3" timeLoss="46.27" rerouteNo="0" devices="tripinfo_39" vType="923" speedFactor="1.00" vaporized=""/>
    <tripinfo id="44" depart="103.00" departLane="3to0_0" departPos="10.10" departSpeed="0.00" departDelay="0.00" arrival="184.00" arrivalLane="0to4_0" arrivalPos="1291.95" arrivalSpeed="59.24" duration="81.00" routeLength="2589.90" waitSteps="1" timeLoss="37.67" rerouteNo="0" devices="tripinfo_44" vType="924" speedFactor="1.00" vaporized=""/>
    <tripinfo id="43" depart="101.00" departLane="4to0_0" departPos="10.10" departSpeed="0.00" departDelay="0.00" arrival="185.00" arrivalLane="0to3_0" arrivalPos="1291.95" arrivalSpeed="59.13" duration="84.00" routeLength="2589.90" waitSteps="1" timeLoss="39.96" rerouteNo="0" devices="tripinfo_43" vType="924" speedFactor="1.00" vaporized=""/>
    <tripinfo id="45" depart="104.00" departLane="4to0_0" departPos="10.10" departSpeed="0.00" departDelay="1.00" arrival="187.00" arrivalLane="0to3_0" arrivalPos="1291.95" arrivalSpeed="59.61" duration="83.00" routeLength="2589.90" waitSteps="0" timeLoss="39.30" rerouteNo="0" devices="tripinfo_45" vType="924" speedFactor="1.00" vaporized=""/>
    <tripinfo id="48" depart="113.00" departLane="2to0_0" departPos="5.10" departSpeed="0.00" departDelay="0.00" arrival="190.00" arrivalLane="0to1_0" arrivalPos="1291.95" arrivalSpeed="59.66" duration="77.00" routeLength="2594.90" waitSteps="0" timeLoss="33.12" rerouteNo="0" devices="tripinfo_48" vType="923" speedFactor="1.00" vaporized=""/>
    <tripinfo id="51" depart="120.00" departLane="1to0_0" departPos="5.10" departSpeed="0.00" departDelay="0.00" arrival="196.00" arrivalLane="0to2_0" arrivalPos="1291.95" arrivalSpeed="58.68" duration="76.00" routeLength="2594.90" waitSteps="0" timeLoss="32.21" rerouteNo="0" devices="tripinfo_51" vType="923" speedFactor="1.00" vaporized=""/>
    <tripinfo id="46" depart="107.00" departLane="4to0_0" departPos="10.10" departSpeed="0.00" departDelay="2.00" arrival="198.00" arrivalLane="0to3_0" arrivalPos="1291.95" arrivalSpeed="59.88" duration="91.00" routeLength="2589.90" waitSteps="5" timeLoss="47.74" rerouteNo="0" devices="tripinfo_46" vType="924" speedFactor="1.00" vaporized=""/>
    <tripinfo id="47" depart="111.00" departLane="4to0_0" departPos="10.10" departSpeed="0.00" departDelay="3.00" arrival="200.00" arrivalLane="0to3_0" arrivalPos="1291.95" arrivalSpeed="59.72" duration="89.00" routeLength="2589.90" waitSteps="4" timeLoss="45.81" rerouteNo="0" devices="tripinfo_47" vType="924" speedFactor="1.00" vaporized=""/>
    <tripinfo id="52" depart="127.00" departLane="3to0_0" departPos="10.10" departSpeed="0.00" departDelay="0.00" arrival="204.00" arrivalLane="0to4_0" arrivalPos="1291.95" arrivalSpeed="58.93" duration="77.00" routeLength="2589.90" waitSteps="0" timeLoss="33.31" rerouteNo="0" devices="tripinfo_52" vType="924" speedFactor="1.00" vaporized=""/>
    <tripinfo id="49" depart="116.00" departLane="4to0_0" departPos="10.10" departSpeed="0.00" departDelay="0.00" arrival="206.00" arrivalLane="0to3_0" arrivalPos="1291.95" arrivalSpeed="59.24" duration="90.00" routeLength="2589.90" waitSteps="3" timeLoss="46.45" rerouteNo="0" devices="tripinfo_49" vType="924" speedFactor="1.00" vaporized=""/>
    <tripinfo id="53" depart="130.00" departLane="2to0_0" departPos="5.10" departSpeed="0.00" departDelay="0.00" arrival="209.00" arrivalLane="0to1_0" arrivalPos="1291.95" arrivalSpeed="59.10" duration="79.00" routeLength="2594.90" waitSteps="0" timeLoss="34.99" rerouteNo="0" devices="tripinfo_53" vType="923" speedFactor="1.00" vaporized=""/>
    <tripinfo id="50" depart="119.00" departLane="4to0_0" departPos="10.10" departSpeed="0.00" departDelay="0.00" arrival="211.00" arrivalLane="0to3_0" arrivalPos="1291.95" arrivalSpeed="58.98" duration="92.00" routeLength="2589.90" waitSteps="1" timeLoss="48.00" rerouteNo="0" devices="tripinfo_50" vType="924" speedFactor="1.00" vaporized=""/>
    <tripinfo id="54" depart="132.00" departLane="2to0_0" departPos="5.10" departSpeed="0.00" departDelay="1.00" arrival="218.00" arrivalLane="0to1_0" arrivalPos="1291.95" arrivalSpeed="59.00" duration="86.00" routeLength="2594.90" waitSteps="0" timeLoss="42.01" rerouteNo="0" devices="tripinfo_54" vType="923" speedFactor="1.00" vaporized=""/>
    <tripinfo id="55" depart="131.00" departLane="4to0_0" departPos="10.10" departSpeed="0.00" departDelay="0.00" arrival="220.00" arrivalLane="0to3_0" arrivalPos="1291.95" arrivalSpeed="58.67" duration="89.00" routeLength="2589.90" waitSteps="0" timeLoss="45.49" rerouteNo="0" devices="tripinfo_55" vType="924" speedFactor="1.00" vaporized=""/>
    <tripinfo id="57" depart="139.00" departLane="4to0_0" departPos="5.10" departSpeed="0.00" departDelay="3.00" arrival="221.00" arrivalLane="0to2_1" arrivalPos="1291.95" arrivalSpeed="59.46" duration="82.00" routeLength="2594.44" waitSteps="3" timeLoss="38.45" rerouteNo="0" devices="tripinfo_57" vType="923" speedFactor="1.00" vaporized=""/>
    <tripinfo id="60" depart="143.00" departLane="2to0_0" departPos="5.10" departSpeed="0.00" departDelay="0.00" arrival="225.00" arrivalLane="0to1_0" arrivalPos="1291.95" arrivalSpeed="59.75" duration="82.00" routeLength="2594.90" waitSteps="0" timeLoss="37.89" rerouteNo="0" devices="tripinfo_60" vType="923" speedFactor="1.00" vaporized=""/>
    <tripinfo id="59" depart="143.00" departLane="1to0_0" departPos="5.10" departSpeed="0.00" departDelay="0.00" arrival="226.00" arrivalLane="0to2_0" arrivalPos="1291.95" arrivalSpeed="58.79" duration="83.00" routeLength="2594.90" waitSteps="0" timeLoss="39.32" rerouteNo="0" devices="tripinfo_59" vType="923" speedFactor="1.00" vaporized=""/>
    <tripinfo id="61" depart="146.00" departLane="1to0_0" departPos="5.10" departSpeed="0.00" departDelay="2.00" arrival="228.00" arrivalLane="0to2_0" arrivalPos="1291.95" arrivalSpeed="58.90" duration="82.00" routeLength="2594.90" waitSteps="0" timeLoss="37.90" rerouteNo="0" devices="tripinfo_61" vType="923" speedFactor="1.00" vaporized=""/>
    <tripinfo id="56" depart="136.00" departLane="4to0_0" departPos="10.10" departSpeed="0.00" departDelay="0.00" arrival="229.00" arrivalLane="0to3_0" arrivalPos="1291.95" arrivalSpeed="58.78" duration="93.00" routeLength="2589.90" waitSteps="2" timeLoss="49.39" rerouteNo="0" devices="tripinfo_56" vType="924" speedFactor="1.00" vaporized=""/>
    <tripinfo id="58" depart="142.00" departLane="4to0_0" departPos="10.10" departSpeed="0.00" departDelay="2.00" arrival="232.00" arrivalLane="0to3_0" arrivalPos="1291.95" arrivalSpeed="59.87" duration="90.00" routeLength="2589.90" waitSteps="0" timeLoss="45.87" rerouteNo="0" devices="tripinfo_58" vType="924" speedFactor="1.00" vaporized=""/>
    <tripinfo id="62" depart="145.00" departLane="4to0_0" departPos="10.10" departSpeed="0.00" departDelay="0.00" arrival="234.00" arrivalLane="0to3_0" arrivalPos="1291.95" arrivalSpeed="59.07" duration="89.00" routeLength="2589.90" waitSteps="0" timeLoss="45.59" rerouteNo="0" devices="tripinfo_62" vType="924" speedFactor="1.00" vaporized=""/>
    <tripinfo id="63" depart="155.00" departLane="1to0_0" departPos="5.10" departSpeed="0.00" departDelay="0.00" arrival="239.00" arrivalLane="0to2_0" arrivalPos="1291.95" arrivalSpeed="59.13" duration="84.00" routeLength="2594.90" waitSteps="1" timeLoss="40.18" rerouteNo="0" devices="tripinfo_63" vType="923" speedFactor="1.00" vaporized=""/>
    <tripinfo id="64" depart="163.00" departLane="3to0_0" departPos="10.10" departSpeed="0.00" departDelay="0.00" arrival="241.00" arrivalLane="0to4_0" arrivalPos="1291.95" arrivalSpeed="59.91" duration="78.00" routeLength="2589.90" waitSteps="0" timeLoss="34.56" rerouteNo="0" devices="tripinfo_64" vType="924" speedFactor="1.00" vaporized=""/>
    <tripinfo id="67" depart="170.00" departLane="3to0_0" departPos="10.10" departSpeed="0.00" departDelay="0.00" arrival="247.00" arrivalLane="0to4_0" arrivalPos="1291.95" arrivalSpeed="58.63" duration="77.00" routeLength="2589.90" waitSteps="0" timeLoss="33.26" rerouteNo="0" devices="tripinfo_67" vType="924" speedFactor="1.00" vaporized=""/>
    <tripinfo id="65" depart="165.00" departLane="2to0_0" departPos="5.10" departSpeed="0.00" departDelay="0.00" arrival="247.00" arrivalLane="0to1_0" arrivalPos="1291.95" arrivalSpeed="58.70" duration="82.00" routeLength="2594.90" waitSteps="2" timeLoss="38.68" rerouteNo="0" devices="tripinfo_65" vType="923" speedFactor="1.00" vaporized=""/>
    <tripinfo id="66" depart="170.00" departLane="2to0_0" departPos="5.10" departSpeed="0.00" departDelay="0.00" arrival="251.00" arrivalLane="0to1_0" arrivalPos="1291.95" arrivalSpeed="59.50" duration="81.00" routeLength="2594.90" waitSteps="0" timeLoss="37.75" rerouteNo="0" devices="tripinfo_66" vType="923" speedFactor="1.00" vaporized=""/>
    <tripinfo id="68" depart="174.00" departLane="4to0_0" departPos="10.10" departSpeed="0.00" departDelay="0.00" arrival="256.00" arrivalLane="0to3_0" arrivalPos="1291.95" arrivalSpeed="58.70" duration="82.00" routeLength="2589.90" waitSteps="1" timeLoss="37.95" rerouteNo="0" devices="tripinfo_68" vType="924" speedFactor="1.00" vaporized=""/>
    <tripinfo id="70" depart="181.00" departLane="4to0_0" departPos="10.10" departSpeed="0.00" departDelay="0.00" arrival="260.00" arrivalLane="0to3_0" arrivalPos="1291.95" arrivalSpeed="59.40" duration="79.00" routeLength="2589.90" waitSteps="0" timeLoss="35.29" rerouteNo="0" devices="tripinfo_70" vType="924" speedFactor="1.00" vaporized=""/>
    <tripinfo id="69" depart="176.00" departLane="3to0_0" departPos="10.10" departSpeed="0.00" departDelay="0.00" arrival="261.00" arrivalLane="0to4_0" arrivalPos="1291.95" arrivalSpeed="59.28" duration="85.00" routeLength="2589.90" waitSteps="4" timeLoss="41.32" rerouteNo="0" devices="tripinfo_69" vType="924" speedFactor="1.00" vaporized=""/>
    <tripinfo id="72" depart="191.00" departLane="2to0_0" departPos="5.10" departSpeed="0.00" departDelay="0.00" arrival="266.00" arrivalLane="0to1_0" arrivalPos="1291.95" arrivalSpeed="58.74" duration="75.00" routeLength="2594.90" waitSteps="0" timeLoss="31.18" rerouteNo="0" devices="tripinfo_72" vType="923" speedFactor="1.00" vaporized=""/>
    <tripinfo id="71" depart="189.00" departLane="1to0_0" departPos="5.10" departSpeed="0.00" departDelay="0.00" arrival="267.00" arrivalLane="0to2_0" arrivalPos="1291.95" arrivalSpeed="58.65" duration="78.00" routeLength="2594.90" waitSteps="0" timeLoss="34.38" rerouteNo="0" devices="tripinfo_71" vType="923" speedFactor="1.00" vaporized=""/>
    <tripinfo id="73" depart="194.00" departLane="2to0_0" departPos="5.10" departSpeed="0.00" departDelay="1.00" arrival="271.00" arrivalLane="0to1_0" arrivalPos="1291.95" arrivalSpeed="59.66" duration="77.00" routeLength="2594.90" waitSteps="0" timeLoss="33.69" rerouteNo="0" devices="tripinfo_73" vType="923" speedFactor="1.00" vaporized=""/>
    <tripinfo id="75" depart="196.00" departLane="1to0_0" departPos="5.10" departSpeed="0.00" departDelay="0.00" arrival="272.00" arrivalLane="0to2_0" arrivalPos="1291.95" arrivalSpeed="59.54" duration="76.00" routeLength="2594.90" waitSteps="0" timeLoss="32.57" rerouteNo="0" devices="tripinfo_75" vType="923" speedFactor="1.00" vaporized=""/>
    <tripinfo id="74" depart="197.00" departLane="2to0_0" departPos="5.10" departSpeed="0.00" departDelay="3.00" arrival="276.00" arrivalLane="0to1_0" arrivalPos="1291.95" arrivalSpeed="58.98" duration="79.00" routeLength="2594.90" waitSteps="0" timeLoss="35.31" rerouteNo="0" devices="tripinfo_74" vType="923" speedFactor="1.00" vaporized=""/>
    <tripinfo id="77" depart="199.00" departLane="1to0_0" departPos="5.10" departSpeed="0.00" departDelay="0.00" arrival="278.00" arrivalLane="0to2_0" arrivalPos="1291.95" arrivalSpeed="59.20" duration="79.00" routeLength="2594.90" waitSteps="0" timeLoss="35.09" rerouteNo="0" devices="tripinfo_77" vType="923" speedFactor="1.00" vaporized=""/>
    <tripinfo id="76" depart="199.00" departLane="2to0_0" departPos="5.10" departSpeed="0.00" departDelay="1.00" arrival="279.00" arrivalLane="0to1_0" arrivalPos="1291.95" arrivalSpeed="58.90" duration="80.00" routeLength="2594.90" waitSteps="0" timeLoss="35.92" rerouteNo="0" devices="tripinfo_76" vType="923" speedFactor="1.00" vaporized=""/>
    <tripinfo id="78" depart="202.00" departLane="1to0_0" departPos="5.10" departSpeed="0.00" departDelay="2.00" arrival="282.00" arrivalLane="0to2_0" arrivalPos="1291.95" arrivalSpeed="59.81" duration="80.00" routeLength="2594.90" waitSteps="0" timeLoss="36.15" rerouteNo="0" devices="tripinfo_78" vType="923" speedFactor="1.00" vaporized=""/>
    <tripinfo id="79" depart="202.00" departLane="4to0_0" departPos="10.10" departSpeed="0.00" departDelay="0.00" arrival="285.00" arrivalLane="0to3_0" arrivalPos="1291.95" arrivalSpeed="58.90" duration="83.00" routeLength="2589.90" waitSteps="3" timeLoss="39.12" rerouteNo="0" devices="tripinfo_79" vType="924" speedFactor="1.00" vaporized=""/>
    <tripinfo id="84" depart="211.00" departLane="1to0_0" departPos="5.10" departSpeed="0.00" departDelay="0.00" arrival="287.00" arrivalLane="0to2_0" arrivalPos="1291.95" arrivalSpeed="59.34" duration="76.00" routeLength="2594.90" waitSteps="0" timeLoss="32.61" rerouteNo="0" devices="tripinfo_84" vType="923" speedFactor="1.00" vaporized=""/>
    <tripinfo id="81" depart="205.00" departLane="2to0_0" departPos="5.10" departSpeed="0.00" departDelay="0.00" arrival="288.00" arrivalLane="0to1_0" arrivalPos="1291.95" arrivalSpeed="59.56" duration="83.00" routeLength="2594.90" waitSteps="2" timeLoss="39.53" rerouteNo="0" devices="tripinfo_81" vType="923" speedFactor="1.00" vaporized=""/>
    <tripinfo id="83" depart="209.00" departLane="2to0_0" departPos="5.10" departSpeed="0.00" departDelay="0.00" arrival="290.00" arrivalLane="0to1_0" arrivalPos="1291.95" arrivalSpeed="59.55" duration="81.00" routeLength="2594.90" waitSteps="0" timeLoss="37.25" rerouteNo="0" devices="tripinfo_83" vType="923" speedFactor="1.00" vaporized=""/>