<?xml version="1.0" encoding="UTF-8"?>

<!-- generated on B¨ SUMO gui Version 0.25.0
<?xml version="1.0" encoding="UTF-8"?>

<configuration xmlns:xsi="http://www.w3.org/2001/XMLSchema-instance" xsi:noNamespaceSchemaLocation="http://sumo.dlr.de/xsd/sumo-gui.exeConfiguration.xsd">

    <input>
        <net-file value="data/cross.net.xml"/>
        <route-files value="data/cross.rou.xml"/>
        <additional-files value="data/add/cross.det.xml,data/add/cross1.det.xml,data/add/cross2.det.xml,data/add/cross3.det.xml,data/add/cross4.det.xml,data/add/cross5.det.xml,data/add/cross6.det.xml,data/add/cross7.det.xml,data/add/ind_1.add.xml,data/add/ind_2.add.xml,data/add/ind_3.add.xml,data/add/ind_4.add.xml,data/add/ind_5.add.xml,data/add/ind_6.add.xml,data/add/ind_7.add.xml,data/add/ind_8.add.xml"/>
    </input>

    <output>
        <tripinfo-output value="tripinfo.xml"/>
        <save-state.prefix value="data/state"/>
    </output>

    <time>
        <begin value="0"/>
    </time>

    <report>
        <verbose value="true"/>
        <no-step-log value="true"/>
    </report>

    <emissions>
        <phemlight-path value="data/./PHEMlight/"/>
    </emissions>

    <traci_server>
        <remote-port value="8873"/>
    </traci_server>

</configuration>
-->

<detector xmlns:xsi="http://www.w3.org/2001/XMLSchema-instance" xsi:noNamespaceSchemaLocation="http://sumo.dlr.de/xsd/det_e1_file.xsd">
</detector>
